/*--------------------------------*- C++ -*----------------------------------*\
| =========                 |                                                 |
| \\      /  F ield         | OpenFOAM: The Open Source CFD Toolbox           |
|  \\    /   O peration     | Version:  2.4.x                                 |
|   \\  /    A nd           | Web:      www.OpenFOAM.org                      |
|    \\/     M anipulation  |                                                 |
\*---------------------------------------------------------------------------*/
FoamFile
{
    version     2.0;
    format      ascii;
    class       volScalarField;
    location    "0";
    object      V;
}
// * * * * * * * * * * * * * * * * * * * * * * * * * * * * * * * * * * * * * //

dimensions      [0 3 0 0 0 0 0];

internalField   nonuniform List<scalar> 
463
(
8.48485e-09
8.48485e-09
8.48485e-09
8.48485e-09
8.48485e-09
8.48485e-09
8.48485e-09
8.48485e-09
8.48485e-09
8.48485e-09
8.48485e-09
8.48485e-09
8.48485e-09
8.48485e-09
8.48485e-09
8.48485e-09
8.48485e-09
8.48485e-09
8.48485e-09
8.48485e-09
8.48485e-09
8.48485e-09
8.48485e-09
8.48485e-09
8.48485e-09
8.48485e-09
8.48485e-09
8.48485e-09
8.48485e-09
8.48485e-09
8.48485e-09
8.48485e-09
8.48485e-09
8.48485e-09
8.48485e-09
8.48485e-09
8.48485e-09
8.48485e-09
8.48485e-09
8.48485e-09
8.48485e-09
8.48485e-09
8.48485e-09
8.48485e-09
8.48485e-09
8.48485e-09
8.48485e-09
8.48485e-09
8.48485e-09
8.48485e-09
8.48485e-09
8.48485e-09
8.48485e-09
8.48485e-09
8.48485e-09
8.48485e-09
8.48485e-09
8.48485e-09
8.48485e-09
8.48485e-09
8.48485e-09
8.48485e-09
8.48485e-09
8.48485e-09
8.48485e-09
8.48485e-09
8.48485e-09
8.48485e-09
8.48485e-09
8.48485e-09
8.48485e-09
8.48485e-09
8.48485e-09
8.48485e-09
8.48485e-09
8.48485e-09
8.48485e-09
8.48485e-09
8.48485e-09
8.48485e-09
8.48485e-09
8.48485e-09
8.48485e-09
8.48485e-09
8.48485e-09
8.48485e-09
8.48485e-09
8.48485e-09
8.48485e-09
8.48485e-09
8.48485e-09
8.48485e-09
8.48485e-09
8.48485e-09
8.48485e-09
8.48485e-09
8.48485e-09
8.48485e-09
8.48485e-09
8.48485e-09
8.48485e-09
8.48485e-09
8.48485e-09
8.48485e-09
8.48485e-09
8.48485e-09
8.48485e-09
8.48485e-09
8.48485e-09
8.48485e-09
8.48485e-09
8.48485e-09
8.48485e-09
8.48485e-09
8.48485e-09
8.48485e-09
8.48485e-09
8.48485e-09
8.48485e-09
8.48485e-09
8.48485e-09
8.48485e-09
8.48485e-09
8.48485e-09
8.48485e-09
8.48485e-09
8.48485e-09
8.48485e-09
8.48485e-09
8.48485e-09
8.48485e-09
8.48485e-09
8.48485e-09
8.48485e-09
8.48485e-09
8.48485e-09
8.48485e-09
8.48485e-09
8.48485e-09
8.48485e-09
8.48485e-09
8.48485e-09
8.48485e-09
8.48485e-09
8.48485e-09
8.48485e-09
8.48485e-09
8.48485e-09
8.48485e-09
8.48485e-09
8.48485e-09
8.48485e-09
8.48485e-09
8.48485e-09
8.48485e-09
8.48485e-09
8.48485e-09
8.48485e-09
8.48485e-09
8.48485e-09
8.48485e-09
8.48485e-09
8.48485e-09
8.48485e-09
8.48485e-09
8.45745e-09
8.5612e-09
8.66623e-09
8.77254e-09
8.88015e-09
8.98909e-09
9.09936e-09
9.21099e-09
9.32398e-09
9.43836e-09
9.55415e-09
9.67135e-09
9.78999e-09
9.91009e-09
1.00317e-08
1.01547e-08
1.02793e-08
1.04054e-08
1.0533e-08
1.06623e-08
1.0793e-08
1.09255e-08
1.10595e-08
1.11951e-08
1.13325e-08
1.14715e-08
1.16122e-08
1.17547e-08
1.18989e-08
1.20448e-08
1.21926e-08
1.23422e-08
1.24936e-08
1.26468e-08
1.2802e-08
1.2959e-08
1.3118e-08
1.32789e-08
1.34418e-08
1.36067e-08
1.37736e-08
1.39426e-08
1.41136e-08
1.42868e-08
1.4462e-08
1.46395e-08
1.4819e-08
1.50008e-08
1.51849e-08
1.53711e-08
1.55597e-08
1.57506e-08
1.59438e-08
1.61394e-08
1.63374e-08
1.65378e-08
1.67407e-08
1.6946e-08
1.71539e-08
1.73643e-08
1.75773e-08
1.7793e-08
1.80112e-08
1.82322e-08
1.84559e-08
1.86823e-08
1.89114e-08
1.91434e-08
1.93783e-08
1.9616e-08
1.98566e-08
2.01002e-08
2.03468e-08
2.05964e-08
2.08491e-08
2.11048e-08
2.13637e-08
2.16258e-08
2.18911e-08
2.21596e-08
2.24315e-08
2.27066e-08
2.29852e-08
2.32672e-08
2.35526e-08
2.38415e-08
2.4134e-08
2.44301e-08
2.47297e-08
2.50331e-08
2.53402e-08
2.56511e-08
2.59657e-08
2.62843e-08
2.66067e-08
2.69331e-08
2.72635e-08
2.75979e-08
2.79365e-08
2.82792e-08
2.86261e-08
2.89773e-08
2.93328e-08
2.96926e-08
3.00568e-08
3.04256e-08
3.07988e-08
3.11766e-08
3.15591e-08
3.19462e-08
3.23381e-08
3.27348e-08
3.31364e-08
3.35429e-08
3.39544e-08
3.43709e-08
3.47925e-08
3.52193e-08
3.56514e-08
3.60887e-08
3.65314e-08
3.69796e-08
3.74332e-08
3.78924e-08
3.83573e-08
3.88278e-08
3.93041e-08
3.97863e-08
4.02744e-08
4.07684e-08
4.12685e-08
4.17748e-08
4.22873e-08
4.24242e-08
4.24242e-08
4.24242e-08
4.24242e-08
4.24242e-08
4.24242e-08
4.24242e-08
4.24242e-08
4.24242e-08
4.24242e-08
4.24242e-08
4.24242e-08
4.24242e-08
4.24242e-08
4.24242e-08
4.24242e-08
4.24242e-08
4.24242e-08
4.24242e-08
4.24242e-08
4.24242e-08
4.24242e-08
4.24242e-08
4.24242e-08
4.24242e-08
4.24242e-08
4.24242e-08
4.24242e-08
4.24242e-08
4.24242e-08
4.24242e-08
4.24242e-08
4.24242e-08
4.24242e-08
4.24242e-08
4.24242e-08
4.24242e-08
4.24242e-08
4.24242e-08
4.24242e-08
4.24242e-08
4.24242e-08
4.24242e-08
4.24242e-08
4.24242e-08
4.24242e-08
4.24242e-08
4.24242e-08
4.24242e-08
4.24242e-08
4.24242e-08
4.24242e-08
4.24242e-08
4.24242e-08
4.24242e-08
4.24242e-08
4.24242e-08
4.24242e-08
4.24242e-08
4.24242e-08
4.24242e-08
4.24242e-08
4.24242e-08
4.24242e-08
4.24242e-08
4.24242e-08
4.24242e-08
4.24242e-08
4.24242e-08
4.24242e-08
4.24242e-08
4.24242e-08
4.24242e-08
4.24242e-08
4.24242e-08
4.24242e-08
4.24242e-08
4.24242e-08
4.24242e-08
4.24242e-08
4.24242e-08
4.24242e-08
4.24242e-08
4.24242e-08
4.24242e-08
4.24242e-08
4.24242e-08
4.24242e-08
4.24242e-08
4.24242e-08
4.24242e-08
4.24242e-08
4.24242e-08
4.24242e-08
4.24242e-08
4.24242e-08
4.24242e-08
4.24242e-08
4.24242e-08
4.24242e-08
4.24242e-08
4.24242e-08
4.24242e-08
4.24242e-08
4.24242e-08
4.24242e-08
4.24242e-08
4.24242e-08
4.24242e-08
4.24242e-08
4.24242e-08
4.24242e-08
4.24242e-08
4.24242e-08
4.24242e-08
4.24242e-08
4.24242e-08
4.24242e-08
4.24242e-08
4.24242e-08
4.24242e-08
4.24242e-08
4.24242e-08
4.24242e-08
4.24242e-08
4.24242e-08
4.24242e-08
4.24242e-08
4.24242e-08
4.24242e-08
4.24242e-08
4.24242e-08
4.24242e-08
4.24242e-08
4.24242e-08
4.24242e-08
4.24242e-08
4.24242e-08
4.24242e-08
4.24242e-08
4.24242e-08
4.24242e-08
4.24242e-08
4.24242e-08
4.24242e-08
4.24242e-08
4.24242e-08
4.24242e-08
4.24242e-08
4.24242e-08
4.24242e-08
4.24242e-08
4.24242e-08
4.24242e-08
4.24242e-08
4.24242e-08
4.24242e-08
4.24242e-08
4.24242e-08
4.24242e-08
4.24242e-08
4.24242e-08
4.24242e-08
4.24242e-08
4.24242e-08
)
;

boundaryField
{
    wall_bottom
    {
        type            calculated;
        value           uniform 2.8e-05;
    }
    wall_top
    {
        type            calculated;
        value           uniform 2.8e-05;
    }
    front1
    {
        type            cyclic;
    }
    back1
    {
        type            cyclic;
    }
    left1
    {
        type            cyclic;
    }
    right1
    {
        type            cyclic;
    }
    front2
    {
        type            cyclic;
    }
    back2
    {
        type            cyclic;
    }
    left2
    {
        type            cyclic;
    }
    right2
    {
        type            cyclic;
    }
    front3
    {
        type            cyclic;
    }
    back3
    {
        type            cyclic;
    }
    left3
    {
        type            cyclic;
    }
    right3
    {
        type            cyclic;
    }
}


// ************************************************************************* //
